[Molden Format]
[Atoms] (Angs)
  O      1    8     -0.00346098      0.01233642     -0.00330427
  H      2    1     -0.00185902     -0.14536442      0.98714092
  H      3    1      0.98620877     -0.05042257     -0.22506477
[GTO]
1    0
S    3    1.000000
   3.22037000E+02    5.92394000E-02 
   4.84308000E+01    3.51500000E-01 
   1.04206000E+01    7.07658000E-01 
SP   2    1.000000
   7.40294000E+00   -4.04453000E-01   2.44586000E-01 
   1.57620000E+00    1.22156000E+00   8.53955000E-01 
SP   1    1.000000
   3.73684000E-01    1.00000000E+00   1.00000000E+00 

2    0
S    2    1.000000
   5.44717800E+00    1.56285000E-01 
   8.24547000E-01    9.04691000E-01 
S    1    1.000000
   1.83192000E-01    1.00000000E+00 

3    0
S    2    1.000000
   5.44717800E+00    1.56285000E-01 
   8.24547000E-01    9.04691000E-01 
S    1    1.000000
   1.83192000E-01    1.00000000E+00 

[MO]
Sym=X
Ene= -19.007520
Spin=Alpha
Occup=1
     1    9.821848198441e-01
     2    1.021803647849e-01
     3    2.720060986492e-03
     4   -6.173985880111e-04
     5    2.187727014194e-03
     6   -4.079693733220e-02
     7   -5.395595836439e-03
     8    1.235937061665e-03
     9   -4.410137334679e-03
    10    2.764957428673e-03
    11    7.021466000642e-03
    12    2.767136768859e-03
    13    6.729563528076e-03
Sym=X
Ene= -0.973227
Spin=Alpha
Occup=1
     1   -2.265521142483e-01
     2    2.169877611372e-01
     3    8.600769335286e-02
     4   -1.984378768644e-02
     5    7.119091144402e-02
     6    6.879813710137e-01
     7    8.668821496613e-02
     8   -1.976545307357e-02
     9    7.028175302594e-02
    10    1.193220835737e-01
    11    3.117257563669e-02
    12    1.144744028394e-01
    13    3.147115210372e-02
Sym=X
Ene= -0.484883
Spin=Alpha
Occup=1
     1    1.631184777509e-03
     2   -1.034028825910e-03
     3   -2.534590535175e-01
     4   -2.533265474095e-02
     5    3.170998606047e-01
     6   -7.915949585617e-03
     7   -2.190884268081e-01
     8   -2.158542827986e-02
     9    2.721403092308e-01
    10    2.289883600648e-01
    11    2.155094164417e-01
    12   -2.271556519385e-01
    13   -2.189505476799e-01
Sym=X
Ene= -0.331927
Spin=Alpha
Occup=1
     1    1.060317553380e-01
     2   -9.099060671486e-02
     3    3.349315650594e-01
     4   -7.508857930729e-02
     5    2.634934973380e-01
     6   -4.801946433429e-01
     7    3.605694892853e-01
     8   -8.070685542983e-02
     9    2.828570318903e-01
    10    1.363278177953e-01
    11    1.401024476845e-01
    12    1.370423147109e-01
    13    1.446754801333e-01
Sym=X
Ene= -0.257577
Spin=Alpha
Occup=1
     1    4.464737654842e-08
     2   -3.898030347196e-07
     3    5.173154712669e-02
     4    5.222594420306e-01
     5    8.307005011035e-02
     6   -5.530751977556e-07
     7    6.061912960322e-02
     8    6.119688697869e-01
     9    9.734069514208e-02
    10   -9.767179818321e-07
    11    3.014545487442e-06
    12   -1.498844510962e-06
    13    3.444216200361e-07
Sym=X
Ene= 0.082528
Spin=Alpha
Occup=0
     1    1.062794535427e-01
     2   -5.727574958319e-02
     3   -2.223481067738e-01
     4    4.734084285827e-02
     5   -1.591640485301e-01
     6   -9.206777688877e-01
     7   -3.873486046065e-01
     8    8.271665354578e-02
     9   -2.788145023586e-01
    10    9.084779277584e-02
    11    7.660296388423e-01
    12    1.005071443604e-01
    13    8.093158894304e-01
Sym=X
Ene= 0.169791
Spin=Alpha
Occup=0
     1    3.661123177967e-03
     2   -1.565667255540e-03
     3    2.302426935985e-01
     4    2.421100832562e-02
     5   -2.955990568401e-01
     6   -3.942798132791e-02
     7    4.416440046933e-01
     8    4.674374026744e-02
     9   -5.689106325973e-01
    10    1.076055491450e-01
    11    1.050073718473e+00
    12   -1.076233463150e-01
    13   -9.908809063814e-01
Sym=X
Ene= 0.900350
Spin=Alpha
Occup=0
     1    1.840549679402e-03
     2   -6.758491708793e-03
     3   -1.402650507043e-01
     4   -9.227018879681e-03
     5    1.453566370155e-01
     6    1.762202725419e-02
     7   -1.245825898298e-01
     8   -1.319767035993e-02
     9    1.605583582978e-01
    10   -8.783204628757e-01
    11    8.159250555020e-01
    12    9.800986291110e-01
    13   -8.963501694713e-01
Sym=X
Ene= 0.971525
Spin=Alpha
Occup=0
     1    5.061058804368e-02
     2   -1.014919183075e-01
     3   -2.480292709355e-01
     4    5.816948118163e-02
     5   -2.112151902623e-01
     6    8.669251498187e-02
     7   -7.606354254848e-02
     8    2.269154880872e-02
     9   -9.531036442983e-02
    10    9.845410848639e-01
    11   -6.265634085916e-01
    12    8.700470898012e-01
    13   -5.442868120001e-01
Sym=X
Ene= 1.437346
Spin=Alpha
Occup=0
     1    6.476037116352e-07
     2   -1.162012267205e-06
     3    9.972500141293e-02
     4    1.006593478107e+00
     5    1.601244443092e-01
     6   -4.533864053019e-06
     7   -9.458752036494e-02
     8   -9.547140934480e-01
     9   -1.518731976266e-01
    10    2.908456635595e-06
    11    4.273167233117e-06
    12    3.827456851196e-06
    13    2.683928785850e-06
