[Molden Format]
[Atoms] (Angs)
  O      1    8     -0.00414429      0.01544016     -0.00476187
  H      2    1     -0.00456717     -0.18245264      1.00861691
  H      3    1      0.99976138     -0.06259257     -0.22340780
[GTO]
1    0
S    3    1.000000
   3.22037000E+02    5.92394000E-02 
   4.84308000E+01    3.51500000E-01 
   1.04206000E+01    7.07658000E-01 
SP   2    1.000000
   7.40294000E+00   -4.04453000E-01   2.44586000E-01 
   1.57620000E+00    1.22156000E+00   8.53955000E-01 
SP   1    1.000000
   3.73684000E-01    1.00000000E+00   1.00000000E+00 

2    0
S    2    1.000000
   5.44717800E+00    1.56285000E-01 
   8.24547000E-01    9.04691000E-01 
S    1    1.000000
   1.83192000E-01    1.00000000E+00 

3    0
S    2    1.000000
   5.44717800E+00    1.56285000E-01 
   8.24547000E-01    9.04691000E-01 
S    1    1.000000
   1.83192000E-01    1.00000000E+00 

[MO]
Sym=X
Ene= -19.012248
Spin=Alpha
Occup=1
     1    9.821714330357e-01
     2    1.019396634764e-01
     3    2.685637090213e-03
     4   -7.360275407274e-04
     5    2.114472966384e-03
     6   -4.007822370393e-02
     7   -5.294586446308e-03
     8    1.448890238656e-03
     9   -4.157593737420e-03
    10    2.718740954774e-03
    11    6.587681122864e-03
    12    2.719786905288e-03
    13    6.631367297841e-03
Sym=X
Ene= -0.965538
Spin=Alpha
Occup=1
     1   -2.274346781936e-01
     2    2.179210854339e-01
     3    8.455335886726e-02
     4   -2.311504499761e-02
     5    6.627471213227e-02
     6    6.936935359855e-01
     7    8.599586410952e-02
     8   -2.354884931899e-02
     9    6.761276751772e-02
    10    1.120597357145e-01
    11    3.342864058766e-02
    12    1.127974725270e-01
    13    3.339244583368e-02
Sym=X
Ene= -0.476865
Spin=Alpha
Occup=1
     1   -2.640880089505e-04
     2    1.720689154147e-04
     3   -2.554440950300e-01
     4   -3.028955367793e-02
     5    3.123516500776e-01
     6    1.258139430145e-03
     7   -2.233141805014e-01
     8   -2.653467169034e-02
     9    2.733462985311e-01
    10    2.236563880596e-01
    11    2.233579422282e-01
    12   -2.239631478562e-01
    13   -2.228300534304e-01
Sym=X
Ene= -0.333682
Spin=Alpha
Occup=1
     1    1.054281533534e-01
     2   -9.092537962692e-02
     3    3.297170288661e-01
     4   -9.055404883193e-02
     5    2.605710858837e-01
     6   -4.772040376449e-01
     7    3.538435809007e-01
     8   -9.720282393102e-02
     9    2.797630177644e-01
    10    1.386113023793e-01
    11    1.508161627439e-01
    12    1.384771967788e-01
    13    1.500658164990e-01
Sym=X
Ene= -0.257304
Spin=Alpha
Occup=1
     1    3.278965226230e-07
     2   -7.038608631718e-07
     3    6.240046815977e-02
     4    5.188406548644e-01
     5    1.013441447759e-01
     6   -1.626971001035e-06
     7    7.288079706433e-02
     8    6.059641653140e-01
     9    1.183636516273e-01
    10   -9.092408839924e-07
    11    2.666717804972e-06
    12   -1.215790503437e-06
    13    1.420616536540e-06
Sym=X
Ene= 0.074907
Spin=Alpha
Occup=0
     1    1.043359949920e-01
     2   -5.749699320562e-02
     3   -2.180976347700e-01
     4    6.040428604400e-02
     5   -1.749573202802e-01
     6   -8.865092829963e-01
     7   -3.747294282592e-01
     8    1.037335913502e-01
     9   -3.003423790260e-01
    10    1.020861926404e-01
    11    7.748493731649e-01
    12    1.004420018315e-01
    13    7.678258104776e-01
Sym=X
Ene= 0.159549
Spin=Alpha
Occup=0
     1    6.016247117823e-04
     2   -2.645205139680e-04
     3   -2.404532081833e-01
     4   -2.825528416997e-02
     5    2.927100800928e-01
     6   -6.282645520004e-03
     7   -4.516824447743e-01
     8   -5.301672941916e-02
     9    5.495383879470e-01
    10   -1.160194296070e-01
    11   -9.798274737537e-01
    12    1.161503401254e-01
    13    9.894002911503e-01
Sym=X
Ene= 0.892485
Spin=Alpha
Occup=0
     1    2.718457507237e-04
     2   -1.098098791582e-03
     3    1.244458445944e-01
     4    1.570131441153e-02
     5   -1.570073702343e-01
     6    3.031185025639e-03
     7    9.676201784135e-02
     8    1.126809520741e-02
     9   -1.172681852282e-01
    10    9.317911240114e-01
    11   -8.897327709289e-01
    12   -9.149979094590e-01
    13    8.762594247869e-01
Sym=X
Ene= 0.953030
Spin=Alpha
Occup=0
     1    4.620672786591e-02
     2   -1.016412109104e-01
     3   -2.530059613181e-01
     4    6.895436538414e-02
     5   -1.972045848694e-01
     6    1.322441198332e-01
     7   -6.986227528221e-02
     8    1.823542934985e-02
     9   -5.035995233855e-02
    10    9.074602792670e-01
    11   -5.991946947335e-01
    12    9.261449516527e-01
    13   -6.137470682192e-01
Sym=X
Ene= 1.436748
Spin=Alpha
Occup=0
     1    3.989084928340e-07
     2   -1.552365376405e-07
     3    1.200059965406e-01
     4    9.976985202373e-01
     5    1.948927884437e-01
     6   -4.095950529002e-06
     7   -1.139461836458e-01
     8   -9.473146524952e-01
     9   -1.850517140280e-01
    10    1.502852644647e-06
    11    4.415070817969e-06
    12    1.113292040576e-06
    13    2.656376412596e-06
