[Molden Format]
[Atoms] (Angs)
  O      1    8     -0.00058236      0.00302625      0.00003298
  H      2    1      0.00115686     -0.03542334      0.94250148
  H      3    1      0.93750736     -0.01260515     -0.23338966
[GTO]
1    0
S    3    1.000000
   3.22037000E+02    5.92394000E-02 
   4.84308000E+01    3.51500000E-01 
   1.04206000E+01    7.07658000E-01 
SP   2    1.000000
   7.40294000E+00   -4.04453000E-01   2.44586000E-01 
   1.57620000E+00    1.22156000E+00   8.53955000E-01 
SP   1    1.000000
   3.73684000E-01    1.00000000E+00   1.00000000E+00 

2    0
S    2    1.000000
   5.44717800E+00    1.56285000E-01 
   8.24547000E-01    9.04691000E-01 
S    1    1.000000
   1.83192000E-01    1.00000000E+00 

3    0
S    2    1.000000
   5.44717800E+00    1.56285000E-01 
   8.24547000E-01    9.04691000E-01 
S    1    1.000000
   1.83192000E-01    1.00000000E+00 

[MO]
Sym=X
Ene= -18.995061
Spin=Alpha
Occup=1
     1    9.822107189234e-01
     2    1.027685233715e-01
     3    2.816793705722e-03
     4   -1.680509525289e-04
     5    2.270598309457e-03
     6   -4.264282790821e-02
     7   -5.712926737995e-03
     8    3.457491106990e-04
     9   -4.726987083609e-03
    10    2.745820215248e-03
    11    7.916272222976e-03
    12    2.796530224934e-03
    13    7.308326649981e-03
Sym=X
Ene= -0.993649
Spin=Alpha
Occup=1
     1   -2.247371874047e-01
     2    2.153817066372e-01
     3    9.251601710053e-02
     4   -5.693212248548e-03
     5    7.886815989077e-02
     6    6.727821666856e-01
     7    8.894276054671e-02
     8   -5.332548425906e-03
     9    7.237004838072e-02
    10    1.335732313075e-01
    11    2.525445972899e-02
    12    1.237449569803e-01
    13    2.604877589686e-02
Sym=X
Ene= -0.507292
Spin=Alpha
Occup=1
     1    2.839344026173e-03
     2   -1.678561185223e-03
     3   -2.518281839886e-01
     4   -6.564849683572e-03
     5    3.267493905229e-01
     6   -1.461463422252e-02
     7   -2.085910162531e-01
     8   -5.257230644781e-03
     9    2.662239783649e-01
    10    2.408539532444e-01
    11    1.983601085602e-01
    12   -2.378955892838e-01
    13   -2.048608307531e-01
Sym=X
Ene= -0.326714
Spin=Alpha
Occup=1
     1    1.063790073717e-01
     2   -9.032041428390e-02
     3    3.473362773691e-01
     4   -2.032414194695e-02
     5    2.702306902596e-01
     6   -4.823943298581e-01
     7    3.764979032495e-01
     8   -2.196664234526e-02
     9    2.913728569211e-01
    10    1.306148601848e-01
    11    1.175672881698e-01
    12    1.314527352844e-01
    13    1.253162320681e-01
Sym=X
Ene= -0.258670
Spin=Alpha
Occup=1
     1    7.187753630344e-07
     2    1.074561708319e-07
     3    1.416467674311e-02
     4    5.284379313079e-01
     5    2.153329570469e-02
     6   -4.676414458495e-06
     7    1.672803168329e-02
     8    6.240405854870e-01
     9    2.542952070321e-02
    10    5.165879278088e-07
    11    2.525738653233e-06
    12    5.160041465349e-07
    13    1.078574964100e-06
Sym=X
Ene= 0.101333
Spin=Alpha
Occup=0
     1    1.109592026312e-01
     2   -5.673817886244e-02
     3   -2.122363104503e-01
     4    1.136276105541e-02
     5   -1.392721762490e-01
     6   -1.008068322729e+00
     7   -3.842593245591e-01
     8    2.067074220310e-02
     9   -2.545564099404e-01
    10    7.432081713053e-02
    11    7.920518082338e-01
    12    8.874742556610e-02
    13    8.660074837100e-01
Sym=X
Ene= 0.194380
Spin=Alpha
Occup=0
     1    6.026280521187e-03
     2   -2.399785972562e-03
     3    2.163773576744e-01
     4    6.053967217243e-03
     5   -2.909108958716e-01
     6   -7.020686262957e-02
     7    4.402768266809e-01
     8    1.244092733595e-02
     9   -5.949241826311e-01
    10    8.240562660504e-02
    11    1.165845113425e+00
    12   -8.581652731398e-02
    13   -1.064094136634e+00
Sym=X
Ene= 0.928581
Spin=Alpha
Occup=0
     1    4.370104018391e-03
     2   -1.227276753308e-02
     3   -1.505090086597e-01
     4   -1.629760441679e-03
     5    1.389921847723e-01
     6    2.538789356157e-02
     7   -2.154048979136e-01
     8   -5.494440654120e-03
     9    2.765296752588e-01
    10   -8.563980605340e-01
    11    7.023636596257e-01
    12    1.041181972064e+00
    13   -8.391315160681e-01
Sym=X
Ene= 1.023404
Spin=Alpha
Occup=0
     1    6.169587287872e-02
     2   -9.846825840624e-02
     3   -2.470590804637e-01
     4    1.549053199672e-02
     5   -2.176151937574e-01
     6   -5.240429496993e-02
     7   -1.237069697076e-01
     8    1.098763785516e-02
     9   -1.883156990071e-01
    10    1.066975870470e+00
    11   -5.853810991672e-01
    12    8.550420558069e-01
    13   -4.675464317539e-01
Sym=X
Ene= 1.438889
Spin=Alpha
Occup=0
     1   -3.585296643848e-07
     2    4.037799299673e-06
     3    2.744605213270e-02
     4    1.024080879893e+00
     5    4.172711562934e-02
     6   -3.841835790704e-06
     7   -2.596345080364e-02
     8   -9.687939218698e-01
     9   -3.947342078619e-02
    10   -1.939310830746e-06
    11    1.645682434378e-06
    12   -1.411569118141e-06
    13    1.137844918535e-06
