[Molden Format]
[Atoms] (Angs)
  O      1    8     -0.00199922      0.00763697     -0.00114736
  H      2    1      0.00081604     -0.08960924      0.95552752
  H      3    1      0.96033460     -0.03159432     -0.22768300
[GTO]
1    0
S    3    1.000000
   3.22037000E+02    5.92394000E-02 
   4.84308000E+01    3.51500000E-01 
   1.04206000E+01    7.07658000E-01 
SP   2    1.000000
   7.40294000E+00   -4.04453000E-01   2.44586000E-01 
   1.57620000E+00    1.22156000E+00   8.53955000E-01 
SP   1    1.000000
   3.73684000E-01    1.00000000E+00   1.00000000E+00 

2    0
S    2    1.000000
   5.44717800E+00    1.56285000E-01 
   8.24547000E-01    9.04691000E-01 
S    1    1.000000
   1.83192000E-01    1.00000000E+00 

3    0
S    2    1.000000
   5.44717800E+00    1.56285000E-01 
   8.24547000E-01    9.04691000E-01 
S    1    1.000000
   1.83192000E-01    1.00000000E+00 

[MO]
Sym=X
Ene= -18.999988
Spin=Alpha
Occup=1
     1    9.822027141472e-01
     2    1.025519811496e-01
     3    2.773876268847e-03
     4   -4.092482647341e-04
     5    2.266182199826e-03
     6   -4.194864977742e-02
     7   -5.571748865221e-03
     8    8.371626386065e-04
     9   -4.700858198109e-03
    10    2.778981742112e-03
    11    7.660083740581e-03
    12    2.816292339700e-03
    13    6.981115556202e-03
Sym=X
Ene= -0.986076
Spin=Alpha
Occup=1
     1   -2.253057624035e-01
     2    2.158289006575e-01
     3    8.910970790943e-02
     4   -1.363193722326e-02
     5    7.757394406394e-02
     6    6.784687423743e-01
     7    8.782123503079e-02
     8   -1.305668070060e-02
     9    7.273198543630e-02
    10    1.297183339961e-01
    11    2.737659339899e-02
    12    1.186778906483e-01
    13    2.822437280846e-02
Sym=X
Ene= -0.498120
Spin=Alpha
Occup=1
     1    3.376178267110e-03
     2   -2.044497822287e-03
     3   -2.520642743447e-01
     4   -1.651693941282e-02
     5    3.234018967677e-01
     6   -1.697673534505e-02
     7   -2.131220571319e-01
     8   -1.347604129424e-02
     9    2.686213884920e-01
    10    2.367703101024e-01
    11    2.040949769249e-01
    12   -2.331361486058e-01
    13   -2.116526015827e-01
Sym=X
Ene= -0.329221
Spin=Alpha
Occup=1
     1    1.065906395415e-01
     2   -9.083378099399e-02
     3    3.421416742669e-01
     4   -4.928771179760e-02
     5    2.677432595665e-01
     6   -4.830803081648e-01
     7    3.698736385599e-01
     8   -5.310019606326e-02
     9    2.876582901897e-01
    10    1.329805857669e-01
    11    1.248777327399e-01
    12    1.341432374681e-01
    13    1.341999456855e-01
Sym=X
Ene= -0.258283
Spin=Alpha
Occup=1
     1    5.664357972289e-07
     2   -1.146718472954e-07
     3    3.401542571328e-02
     4    5.261331141893e-01
     5    5.338141361547e-02
     6   -4.006576560607e-06
     7    4.005304128887e-02
     8    6.195002401091e-01
     9    6.285550669286e-02
    10    1.111165281571e-08
    11    4.038221150228e-06
    12   -3.162361185592e-07
    13    8.037528726530e-07
Sym=X
Ene= 0.094117
Spin=Alpha
Occup=0
     1    1.090117254835e-01
     2   -5.682823249102e-02
     3   -2.210163618679e-01
     4    2.864173770460e-02
     5   -1.414733713656e-01
     6   -9.729730134623e-01
     7   -3.939299349963e-01
     8    5.134999458289e-02
     9   -2.551089768056e-01
    10    7.754706811876e-02
    11    7.679976869929e-01
    12    9.583941370633e-02
    13    8.565522732219e-01
Sym=X
Ene= 0.185341
Spin=Alpha
Occup=0
     1    7.327704237515e-03
     2   -2.992314512110e-03
     3    2.191093204818e-01
     4    1.571954295921e-02
     5   -2.945601374304e-01
     6   -8.292217619255e-02
     7    4.352190554510e-01
     8    3.161309525141e-02
     9   -5.889131207516e-01
    10    9.211728589576e-02
    11    1.139513810683e+00
    12   -9.473922059020e-02
    13   -1.017804914979e+00
Sym=X
Ene= 0.915174
Spin=Alpha
Occup=0
     1    4.396622431509e-03
     2   -1.396752829592e-02
     3   -1.536468661861e-01
     4   -3.660642733092e-03
     5    1.339808068380e-01
     6    3.274197835876e-02
     7   -1.759379949472e-01
     8   -1.185517875135e-02
     9    2.289569819624e-01
    10   -8.336283943840e-01
    11    7.262222309424e-01
    12    1.040881931353e+00
    13   -8.851949248906e-01
Sym=X
Ene= 1.004607
Spin=Alpha
Occup=0
     1    5.750050270610e-02
     2   -9.998452876700e-02
     3   -2.449484247065e-01
     4    3.835638145584e-02
     5   -2.219299030107e-01
     6    2.503095647463e-03
     7   -9.324545859460e-02
     8    2.286534766642e-02
     9   -1.659712161661e-01
    10    1.063305051502e+00
    11   -6.199496223528e-01
    12    8.261777110432e-01
    13   -4.742561983606e-01
Sym=X
Ene= 1.438223
Spin=Alpha
Occup=0
     1    2.321850313067e-07
     2    2.167241530992e-06
     3    6.579287291247e-02
     4    1.017514681387e+00
     5    1.032450840477e-01
     6   -6.406624496303e-06
     7   -6.230300244860e-02
     8   -9.635203003065e-01
     9   -9.776713748681e-02
    10    1.223828603138e-06
    11    4.027942598400e-06
    12    2.339862024232e-06
    13    2.277229282215e-06
