[Molden Format]
[Atoms] (Angs)
  O      1    8     -0.00251609      0.00919854     -0.00180694
  H      2    1      0.00015144     -0.10807296      0.96495171
  H      3    1      0.96920232     -0.03791378     -0.22663918
[GTO]
1    0
S    3    1.000000
   3.22037000E+02    5.92394000E-02 
   4.84308000E+01    3.51500000E-01 
   1.04206000E+01    7.07658000E-01 
SP   2    1.000000
   7.40294000E+00   -4.04453000E-01   2.44586000E-01 
   1.57620000E+00    1.22156000E+00   8.53955000E-01 
SP   1    1.000000
   3.73684000E-01    1.00000000E+00   1.00000000E+00 

2    0
S    2    1.000000
   5.44717800E+00    1.56285000E-01 
   8.24547000E-01    9.04691000E-01 
S    1    1.000000
   1.83192000E-01    1.00000000E+00 

3    0
S    2    1.000000
   5.44717800E+00    1.56285000E-01 
   8.24547000E-01    9.04691000E-01 
S    1    1.000000
   1.83192000E-01    1.00000000E+00 

[MO]
Sym=X
Ene= -19.002387
Spin=Alpha
Occup=1
     1    9.821975877123e-01
     2    1.024362433297e-01
     3    2.756579448902e-03
     4   -4.829061029024e-04
     5    2.246636145441e-03
     6   -4.158470381561e-02
     7   -5.513616148897e-03
     8    9.820004833236e-04
     9   -4.626320856846e-03
    10    2.782704372956e-03
    11    7.468642008773e-03
    12    2.806157251203e-03
    13    6.884953631345e-03
Sym=X
Ene= -0.981968
Spin=Alpha
Occup=1
     1   -2.256729567588e-01
     2    2.161482255650e-01
     3    8.798880185272e-02
     4   -1.591024459064e-02
     5    7.579814068084e-02
     6    6.815143953429e-01
     7    8.744689911010e-02
     8   -1.543328976904e-02
     9    7.220884854914e-02
    10    1.266438601773e-01
    11    2.858182270893e-02
    12    1.170983112728e-01
    13    2.927813068815e-02
Sym=X
Ene= -0.493827
Spin=Alpha
Occup=1
     1    3.007186308384e-03
     2   -1.846808352111e-03
     3   -2.523374178799e-01
     4   -1.963058658966e-02
     5    3.215223575193e-01
     6   -1.494358602082e-02
     7   -2.150065939084e-01
     8   -1.623241064214e-02
     9    2.698798713915e-01
    10    2.343964573384e-01
    11    2.075438062099e-01
    12   -2.311152580098e-01
    13   -2.141728923427e-01
Sym=X
Ene= -0.330112
Spin=Alpha
Occup=1
     1    1.064809782004e-01
     2   -9.092936558510e-02
     3    3.398900667475e-01
     4   -5.826527614976e-02
     5    2.664238505365e-01
     6   -4.824737804773e-01
     7    3.669772984761e-01
     8   -6.271846777279e-02
     9    2.860949618375e-01
    10    1.340396268080e-01
    11    1.294470451566e-01
    12    1.351568155904e-01
    13    1.377878939852e-01
Sym=X
Ene= -0.258034
Spin=Alpha
Occup=1
     1    2.740714592832e-07
     2   -1.873915370809e-07
     3    4.016335204678e-02
     4    5.250058165363e-01
     5    6.357362387094e-02
     6   -2.232074328216e-06
     7    4.722174310198e-02
     8    6.172541943698e-01
     9    7.474524692380e-02
    10   -4.913959675769e-07
    11    3.660721185015e-06
    12   -8.731546190880e-07
    13    4.187718064920e-07
Sym=X
Ene= 0.090487
Spin=Alpha
Occup=0
     1    1.081578620205e-01
     2   -5.696459301653e-02
     3   -2.224753399701e-01
     4    3.469965786787e-02
     5   -1.460121064894e-01
     6   -9.563701468018e-01
     7   -3.936180023436e-01
     8    6.171933441425e-02
     9   -2.610243990432e-01
    10    8.113506527796e-02
    11    7.648633836313e-01
    12    9.791526658256e-02
    13    8.440608921211e-01
Sym=X
Ene= 0.180536
Spin=Alpha
Occup=0
     1    6.601877740024e-03
     2   -2.734522224746e-03
     3    2.220025529748e-01
     4    1.879487876890e-02
     5   -2.954704347325e-01
     6   -7.355638126523e-02
     7    4.360118444003e-01
     8    3.733351779069e-02
     9   -5.837664878252e-01
    10    9.717702516829e-02
    11    1.114442028147e+00
    12   -9.880950098097e-02
    13   -1.005726548080e+00
Sym=X
Ene= 0.910017
Spin=Alpha
Occup=0
     1    3.726276045324e-03
     2   -1.240953808081e-02
     3   -1.508792486965e-01
     4   -4.974617159608e-03
     5    1.363974855584e-01
     6    3.021667302685e-02
     7   -1.585860716800e-01
     8   -1.292412987827e-02
     9    2.069200141735e-01
    10   -8.419244985879e-01
    11    7.508733487460e-01
    12    1.026543371684e+00
    13   -8.940254948224e-01
Sym=X
Ene= 0.993871
Spin=Alpha
Occup=0
     1    5.533556753645e-02
     2   -1.005862340148e-01
     3   -2.453106838790e-01
     4    4.541477859958e-02
     5   -2.200345491343e-01
     6    3.036803209090e-02
     7   -8.626131296532e-02
     8    2.410692740535e-02
     9   -1.446033009326e-01
    10    1.043720980801e+00
    11   -6.274460732020e-01
    12    8.335228196333e-01
    13   -4.912447253869e-01
Sym=X
Ene= 1.437948
Spin=Alpha
Occup=0
     1    5.626828619125e-07
     2    3.541756089980e-07
     3    7.760766571626e-02
     4    1.014273250157e+00
     5    1.228335094895e-01
     6   -6.235474271248e-06
     7   -7.352812364731e-02
     8   -9.609256560145e-01
     9   -1.163746880220e-01
    10    3.085523767650e-06
    11    4.576938892010e-06
    12    4.044513660986e-06
    13    2.277957562951e-06
