[Molden Format]
[Atoms] (Angs)
  O      1    8     -0.00384442      0.01389723     -0.00405756
  H      2    1     -0.00314099     -0.16399527      0.99832709
  H      3    1      0.99357617     -0.05656276     -0.22429574
[GTO]
1    0
S    3    1.000000
   3.22037000E+02    5.92394000E-02 
   4.84308000E+01    3.51500000E-01 
   1.04206000E+01    7.07658000E-01 
SP   2    1.000000
   7.40294000E+00   -4.04453000E-01   2.44586000E-01 
   1.57620000E+00    1.22156000E+00   8.53955000E-01 
SP   1    1.000000
   3.73684000E-01    1.00000000E+00   1.00000000E+00 

2    0
S    2    1.000000
   5.44717800E+00    1.56285000E-01 
   8.24547000E-01    9.04691000E-01 
S    1    1.000000
   1.83192000E-01    1.00000000E+00 

3    0
S    2    1.000000
   5.44717800E+00    1.56285000E-01 
   8.24547000E-01    9.04691000E-01 
S    1    1.000000
   1.83192000E-01    1.00000000E+00 

[MO]
Sym=X
Ene= -19.009990
Spin=Alpha
Occup=1
     1    9.821779793043e-01
     2    1.020548360149e-01
     3    2.702188982019e-03
     4   -6.784442633769e-04
     5    2.151885970399e-03
     6   -4.041937620749e-02
     7   -5.341522457212e-03
     8    1.346566846300e-03
     9   -4.284371796836e-03
    10    2.744231029206e-03
    11    6.796937863186e-03
    12    2.743136523425e-03
    13    6.672889068944e-03
Sym=X
Ene= -0.969146
Spin=Alpha
Occup=1
     1   -2.270074202416e-01
     2    2.174587493167e-01
     3    8.520314300878e-02
     4   -2.154376419778e-02
     5    6.870103648685e-02
     6    6.910062870865e-01
     7    8.632430745997e-02
     8   -2.171853159662e-02
     9    6.899884132985e-02
    10    1.155819626288e-01
    11    3.237594681019e-02
    12    1.135038802070e-01
    13    3.248941121570e-02
Sym=X
Ene= -0.480672
Spin=Alpha
Occup=1
     1    7.225591058045e-04
     2   -4.652790218991e-04
     3   -2.543459193463e-01
     4   -2.790072784347e-02
     5    3.147277015897e-01
     6   -3.470034688603e-03
     7   -2.212057558396e-01
     8   -2.412081262191e-02
     9    2.729069294328e-01
    10    2.262485570268e-01
    11    2.195533007289e-01
    12   -2.254248949806e-01
    13   -2.210362795368e-01
Sym=X
Ene= -0.332821
Spin=Alpha
Occup=1
     1    1.057346711353e-01
     2   -9.096771647287e-02
     3    3.323313906137e-01
     4   -8.297267064718e-02
     5    2.620097849670e-01
     6   -4.787208458714e-01
     7    3.572097527995e-01
     8   -8.912096306388e-02
     9    2.812770696835e-01
    10    1.374866618418e-01
    11    1.455865171547e-01
    12    1.378296504586e-01
    13    1.476244640704e-01
Sym=X
Ene= -0.257412
Spin=Alpha
Occup=1
     1    1.443302705571e-07
     2   -5.539805188277e-07
     3    5.717078535508e-02
     4    5.206375854076e-01
     5    9.235555112073e-02
     6   -8.864323599034e-07
     7    6.687931140265e-02
     8    6.090338681858e-01
     9    1.080378741564e-01
    10   -9.354274441025e-07
    11    2.913167023621e-06
    12   -1.452019585697e-06
    13    7.835448394562e-07
Sym=X
Ene= 0.078585
Spin=Alpha
Occup=0
     1    1.053016613262e-01
     2   -5.740645045306e-02
     3   -2.207052379221e-01
     4    5.385154068134e-02
     5   -1.669550861306e-01
     6   -9.030679995153e-01
     7   -3.816910891255e-01
     8    9.325604157889e-02
     9   -2.894341398087e-01
    10    9.642471178579e-02
    11    7.696983581625e-01
    12    1.008178068979e-01
    13    7.889179751152e-01
Sym=X
Ene= 0.164463
Spin=Alpha
Occup=0
     1    1.635760063167e-03
     2   -7.109339475704e-04
     3    2.352211067338e-01
     4    2.641925869306e-02
     5   -2.945438411093e-01
     6   -1.732869372186e-02
     7    4.462327377085e-01
     8    5.026821520751e-02
     9   -5.596105792622e-01
    10    1.121977898365e-01
    11    1.014752757961e+00
    12   -1.120133495749e-01
    13   -9.885326971811e-01
Sym=X
Ene= 0.896154
Spin=Alpha
Occup=0
     1    7.778263501282e-04
     2   -2.999528050709e-03
     3   -1.328358665936e-01
     4   -1.221258459915e-02
     5    1.510729742747e-01
     6    8.060809365243e-03
     7   -1.096102872836e-01
     8   -1.246689059921e-02
     9    1.381333447638e-01
    10   -9.038185331873e-01
    11    8.527205157536e-01
    12    9.493273954708e-01
    13   -8.889765585160e-01
Sym=X
Ene= 0.961531
Spin=Alpha
Occup=0
     1    4.831101845174e-02
     2   -1.016749551382e-01
     3   -2.503132688648e-01
     4    6.379969645001e-02
     5   -2.046737998597e-01
     6    1.114248273172e-01
     7   -7.249278391470e-02
     8    2.065386025087e-02
     9   -7.157550125734e-02
    10    9.474835072901e-01
    11   -6.161288223390e-01
    12    8.965833104387e-01
    13   -5.779169396116e-01
Sym=X
Ene= 1.437041
Spin=Alpha
Occup=0
     1    5.077495609783e-07
     2   -8.606345175673e-07
     3    1.100754734825e-01
     4    1.002273990196e+00
     5    1.778081876062e-01
     6   -3.948380497029e-06
     7   -1.044626326950e-01
     8   -9.511540670058e-01
     9   -1.687402642716e-01
    10    1.927091316657e-06
    11    4.183284094988e-06
    12    2.448672146057e-06
    13    2.777340462289e-06
