[Molden Format]
[Atoms] (Angs)
  O      1    8     -0.00024078      0.00151088      0.00009619
  H      2    1      0.00070329     -0.01768120      0.94462554
  H      3    1      0.93253983     -0.00629751     -0.23651700
[GTO]
1    0
S    3    1.000000
   3.22037000E+02    5.92394000E-02 
   4.84308000E+01    3.51500000E-01 
   1.04206000E+01    7.07658000E-01 
SP   2    1.000000
   7.40294000E+00   -4.04453000E-01   2.44586000E-01 
   1.57620000E+00    1.22156000E+00   8.53955000E-01 
SP   1    1.000000
   3.73684000E-01    1.00000000E+00   1.00000000E+00 

2    0
S    2    1.000000
   5.44717800E+00    1.56285000E-01 
   8.24547000E-01    9.04691000E-01 
S    1    1.000000
   1.83192000E-01    1.00000000E+00 

3    0
S    2    1.000000
   5.44717800E+00    1.56285000E-01 
   8.24547000E-01    9.04691000E-01 
S    1    1.000000
   1.83192000E-01    1.00000000E+00 

[MO]
Sym=X
Ene= -18.994493
Spin=Alpha
Occup=1
     1    9.822108670396e-01
     2    1.027819676250e-01
     3    2.826937837604e-03
     4   -8.399059290745e-05
     5    2.252778709411e-03
     6   -4.268795152738e-02
     7   -5.741879702807e-03
     8    1.724020114273e-04
     9   -4.666140632008e-03
    10    2.736512560979e-03
    11    7.867218903901e-03
    12    2.775554041549e-03
    13    7.411323958105e-03
Sym=X
Ene= -0.993821
Spin=Alpha
Occup=1
     1   -2.247529005459e-01
     2    2.153950871089e-01
     3    9.347520179654e-02
     4   -2.841850224811e-03
     5    7.770935514389e-02
     6    6.725854713052e-01
     7    8.932023708243e-02
     8   -2.663037866504e-03
     9    7.167195577494e-02
    10    1.326120618956e-01
    11    2.524751828164e-02
    12    1.252270404960e-01
    13    2.583980250102e-02
Sym=X
Ene= -0.508420
Spin=Alpha
Occup=1
     1    2.124183859670e-03
     2   -1.255306856152e-03
     3   -2.517457727648e-01
     4   -3.234631499468e-03
     5    3.269352902996e-01
     6   -1.094386959575e-02
     7   -2.076122056144e-01
     8   -2.600049588534e-03
     9    2.662991577406e-01
    10    2.408813099227e-01
    11    1.983647525046e-01
    12   -2.386837687326e-01
    13   -2.032374000435e-01
Sym=X
Ene= -0.325945
Spin=Alpha
Occup=1
     1    1.061447746039e-01
     2   -9.009760026077e-02
     3    3.484005370281e-01
     4   -1.020306425833e-02
     5    2.703668665118e-01
     6   -4.814224197700e-01
     7    3.778470395605e-01
     8   -1.104145894281e-02
     9    2.920613874263e-01
    10    1.302189530020e-01
    11    1.178368519908e-01
    12    1.308339320088e-01
    13    1.236125289510e-01
Sym=X
Ene= -0.258565
Spin=Alpha
Occup=1
     1    3.981309259800e-07
     2    7.165780236557e-08
     3    7.151312931930e-03
     4    5.288066944628e-01
     5    1.073832087276e-02
     6   -2.579575045048e-06
     7    8.448428068862e-03
     8    6.246931238012e-01
     9    1.268570664412e-02
    10    2.835365048091e-07
    11    1.289782660232e-06
    12    3.213077194876e-07
    13    6.244387297992e-07
Sym=X
Ene= 0.102005
Spin=Alpha
Occup=0
     1    1.113149176113e-01
     2   -5.684973389093e-02
     3   -2.085404788437e-01
     4    5.713943723476e-03
     5   -1.425398311884e-01
     6   -1.012300328391e+00
     7   -3.783032044032e-01
     8    1.040216588881e-02
     9   -2.603761126452e-01
    10    7.610821095164e-02
    11    8.034413651104e-01
    12    8.680934950346e-02
    13    8.587519097705e-01
Sym=X
Ene= 0.195094
Spin=Alpha
Occup=0
     1    4.503015649109e-03
     2   -1.792052013852e-03
     3    2.174289645967e-01
     4    2.946512879322e-03
     5   -2.899094990218e-01
     6   -5.254968895397e-02
     7    4.438064715174e-01
     8    6.058947024321e-03
     9   -5.939300193256e-01
    10    8.179300446765e-02
    11    1.155477663662e+00
    12   -8.440391198354e-02
    13   -1.079367580713e+00
Sym=X
Ene= 0.931210
Spin=Alpha
Occup=0
     1    3.472499608273e-03
     2   -9.449399325554e-03
     3   -1.454754229709e-01
     4   -9.849220755458e-04
     5    1.453750218283e-01
     6    1.876696921053e-02
     7   -2.200628248863e-01
     8   -2.754919093852e-03
     9    2.822179983671e-01
    10   -8.802293670471e-01
    11    7.147658212650e-01
    12    1.024323346398e+00
    13   -8.202274970202e-01
Sym=X
Ene= 1.022903
Spin=Alpha
Occup=0
     1    6.201809226314e-02
     2   -9.817832340379e-02
     3   -2.487005306251e-01
     4    7.686052391000e-03
     5   -2.128625090678e-01
     6   -5.539186602329e-02
     7   -1.364866174149e-01
     8    5.437302053738e-03
     9   -1.769161411784e-01
    10    1.046133318300e+00
    11   -5.727907440355e-01
    12    8.815703081064e-01
    13   -4.809987469134e-01
Sym=X
Ene= 1.439059
Spin=Alpha
Occup=0
     1   -2.126842975058e-07
     2    2.275483320254e-06
     3    1.385939014766e-02
     4    1.025045757771e+00
     5    2.081330183511e-02
     6   -2.037370795935e-06
     7   -1.310906289076e-02
     8   -9.695946742830e-01
     9   -1.968686721521e-02
    10   -1.112403515606e-06
    11    8.749626747882e-07
    12   -8.998328937039e-07
    13    5.289708569042e-07
