[Molden Format]
[Atoms] (Angs)
  O      1    8     -0.00301128      0.01076732     -0.00254016
  H      2    1     -0.00075082     -0.12668657      0.97575766
  H      3    1      0.97796353     -0.04419778     -0.22580848
[GTO]
1    0
S    3    1.000000
   3.22037000E+02    5.92394000E-02 
   4.84308000E+01    3.51500000E-01 
   1.04206000E+01    7.07658000E-01 
SP   2    1.000000
   7.40294000E+00   -4.04453000E-01   2.44586000E-01 
   1.57620000E+00    1.22156000E+00   8.53955000E-01 
SP   1    1.000000
   3.73684000E-01    1.00000000E+00   1.00000000E+00 

2    0
S    2    1.000000
   5.44717800E+00    1.56285000E-01 
   8.24547000E-01    9.04691000E-01 
S    1    1.000000
   1.83192000E-01    1.00000000E+00 

3    0
S    2    1.000000
   5.44717800E+00    1.56285000E-01 
   8.24547000E-01    9.04691000E-01 
S    1    1.000000
   1.83192000E-01    1.00000000E+00 

[MO]
Sym=X
Ene= -19.004944
Spin=Alpha
Occup=1
     1    9.821915031737e-01
     2    1.023098774823e-01
     3    2.738440134253e-03
     4   -5.523103288694e-04
     5    2.219940564969e-03
     6   -4.119269121372e-02
     7   -5.453950911958e-03
     8    1.114851769497e-03
     9   -4.526878201194e-03
    10    2.778213214129e-03
    11    7.250171865496e-03
    12    2.789035568986e-03
    13    6.800595122965e-03
Sym=X
Ene= -0.977585
Spin=Alpha
Occup=1
     1   -2.260974958776e-01
     2    2.165413724237e-01
     3    8.694478683612e-02
     4   -1.797591041179e-02
     5    7.361060959577e-02
     6    6.847574666917e-01
     7    8.706721150032e-02
     8   -1.767214486512e-02
     9    7.137588166502e-02
    10    1.230885245401e-01
    11    2.988000158491e-02
    12    1.156832517156e-01
    13    3.038212696841e-02
Sym=X
Ene= -0.489335
Spin=Alpha
Occup=1
     1    2.409888470939e-03
     2   -1.503281782535e-03
     3   -2.527927680112e-01
     4   -2.257501909917e-02
     5    3.193924551558e-01
     6   -1.183105698678e-02
     7   -2.170083308855e-01
     8   -1.894666002596e-02
     9    2.710989553017e-01
    10    2.317516008363e-01
    11    2.114288743989e-01
    12   -2.290839218901e-01
    13   -2.166366653822e-01
Sym=X
Ene= -0.331018
Spin=Alpha
Occup=1
     1    1.062888979441e-01
     2   -9.098066980564e-02
     3    3.374684442172e-01
     4   -6.686207599929e-02
     5    2.649837994131e-01
     6   -4.814846242422e-01
     7    3.638505243228e-01
     8   -7.191642982387e-02
     9    2.844767461947e-01
    10    1.351675272127e-01
    11    1.346250017336e-01
    12    1.361390325411e-01
    13    1.413431106482e-01
Sym=X
Ene= -0.257789
Spin=Alpha
Occup=1
     1    7.848254250277e-08
     2   -2.619871339112e-07
     3    4.606651478153e-02
     4    5.237141647020e-01
     5    7.347572203563e-02
     6   -9.496803301899e-07
     7    5.407340345737e-02
     8    6.147257671445e-01
     9    8.624571745945e-02
    10   -8.622931816771e-07
    11    3.231572214265e-06
    12   -1.303411083945e-06
    13    2.190858409879e-07
Sym=X
Ene= 0.086559
Spin=Alpha
Occup=0
     1    1.072397744466e-01
     2   -5.712143337902e-02
     3   -2.229412395415e-01
     4    4.094048608305e-02
     5   -1.520377985278e-01
     6   -9.386820938007e-01
     7   -3.913936761893e-01
     8    7.218564793398e-02
     9   -2.691277664267e-01
    10    8.565539045141e-02
    11    7.642903681674e-01
    12    9.951591095624e-02
    13    8.280187878295e-01
Sym=X
Ene= 0.175251
Spin=Alpha
Occup=0
     1    5.352162729707e-03
     2   -2.251933625062e-03
     3    2.257663764976e-01
     4    2.165136450999e-02
     5   -2.958755143754e-01
     6   -5.863515847669e-02
     7    4.381777146680e-01
     8    4.241602994713e-02
     9   -5.770521934722e-01
    10    1.024815231586e-01
    11    1.083962061651e+00
    12   -1.031620503935e-01
    13   -9.966319795041e-01
Sym=X
Ene= 0.905011
Spin=Alpha
Occup=0
     1    2.847985641669e-03
     2   -9.956598122019e-03
     3   -1.463632794714e-01
     4   -6.812824784936e-03
     5    1.403210208245e-01
     6    2.512023924096e-02
     7   -1.411519437450e-01
     8   -1.336780662058e-02
     9    1.837802100892e-01
    10   -8.571885589327e-01
    11    7.813524273827e-01
    12    1.006095738699e+00
    13   -8.979647270774e-01
Sym=X
Ene= 0.982539
Spin=Alpha
Occup=0
     1    5.299419041345e-02
     2   -1.011123435430e-01
     3   -2.463336660104e-01
     4    5.203639496927e-02
     5   -2.164233860671e-01
     6    5.913306572877e-02
     7   -8.060656808437e-02
     8    2.396181100233e-02
     9   -1.202726745649e-01
    10    1.017055656921e+00
    11   -6.301220255734e-01
    12    8.485114058054e-01
    13   -5.149020210710e-01
Sym=X
Ene= 1.437652
Spin=Alpha
Occup=0
     1    7.059262651545e-07
     2   -8.143450871026e-07
     3    8.891296433644e-02
     4    1.010611761156e+00
     5    1.418029473607e-01
     6   -5.509175532343e-06
     7   -8.428509145402e-02
     8   -9.579792973079e-01
     9   -1.344199336985e-01
    10    3.651105753337e-06
    11    4.576531260662e-06
    12    4.570158649073e-06
    13    2.424509809353e-06
