[Molden Format]
[Atoms] (Angs)
  O      1    8     -0.00100561      0.00455055     -0.00020113
  H      2    1      0.00133115     -0.05329318      0.94376400
  H      3    1      0.94405021     -0.01892701     -0.23093677
[GTO]
1    0
S    3    1.000000
   3.22037000E+02    5.92394000E-02 
   4.84308000E+01    3.51500000E-01 
   1.04206000E+01    7.07658000E-01 
SP   2    1.000000
   7.40294000E+00   -4.04453000E-01   2.44586000E-01 
   1.57620000E+00    1.22156000E+00   8.53955000E-01 
SP   1    1.000000
   3.73684000E-01    1.00000000E+00   1.00000000E+00 

2    0
S    2    1.000000
   5.44717800E+00    1.56285000E-01 
   8.24547000E-01    9.04691000E-01 
S    1    1.000000
   1.83192000E-01    1.00000000E+00 

3    0
S    2    1.000000
   5.44717800E+00    1.56285000E-01 
   8.24547000E-01    9.04691000E-01 
S    1    1.000000
   1.83192000E-01    1.00000000E+00 

[MO]
Sym=X
Ene= -18.996213
Spin=Alpha
Occup=1
     1    9.822093252416e-01
     2    1.027235970135e-01
     3    2.804306806554e-03
     4   -2.510036397159e-04
     5    2.278844243348e-03
     6   -4.249699667452e-02
     7   -5.673548603269e-03
     8    5.165268289122e-04
     9   -4.753563895483e-03
    10    2.757289469675e-03
    11    7.895796295067e-03
    12    2.811227706654e-03
    13    7.197606533373e-03
Sym=X
Ene= -0.992191
Spin=Alpha
Occup=1
     1   -2.248260828259e-01
     2    2.154464607842e-01
     3    9.142530418144e-02
     4   -8.483465230445e-03
     5    7.922044293317e-02
     6    6.739028607662e-01
     7    8.856473824155e-02
     8   -7.976452082931e-03
     9    7.279738068364e-02
    10    1.333733298335e-01
    11    2.563686957437e-02
    12    1.220868690333e-01
    13    2.654625106361e-02
Sym=X
Ene= -0.505088
Spin=Alpha
Occup=1
     1    3.300634359095e-03
     2   -1.959836027494e-03
     3   -2.518696185007e-01
     4   -9.930386216703e-03
     5    3.260788340143e-01
     6   -1.690780117128e-02
     7   -2.098682181950e-01
     8   -7.964701221596e-03
     9    2.666447702910e-01
    10    2.401165252465e-01
    11    1.993547754769e-01
    12   -2.366457732844e-01
    13   -2.068795171412e-01
Sym=X
Ene= -0.327519
Spin=Alpha
Occup=1
     1    1.065369033777e-01
     2   -9.052248528619e-02
     3    3.459142190150e-01
     4   -3.026557833256e-02
     5    2.697154025289e-01
     6   -4.830247748302e-01
     7    3.746923484795e-01
     8   -3.267292365590e-02
     9    2.903655554250e-01
    10    1.312286313797e-01
    11    1.187196651585e-01
    12    1.322387277577e-01
    13    1.277613523673e-01
Sym=X
Ene= -0.258640
Spin=Alpha
Occup=1
     1    8.726716832039e-07
     2    7.389678373340e-08
     3    2.099965531091e-02
     4    5.278616268687e-01
     5    3.229497756482e-02
     6   -5.722876168304e-06
     7    2.478301040080e-02
     8    6.229372694371e-01
     9    3.811255494455e-02
    10    5.934177587631e-07
    11    3.505954783902e-06
    12    4.835344321328e-07
    13    1.260369295044e-06
Sym=X
Ene= 0.099709
Spin=Alpha
Occup=0
     1    1.104376918446e-01
     2   -5.670060107349e-02
     3   -2.156980702920e-01
     4    1.702056955141e-02
     5   -1.379726077933e-01
     6   -9.996361970484e-01
     7   -3.890539670081e-01
     8    3.087188294746e-02
     9   -2.516636913837e-01
    10    7.400016702348e-02
    11    7.819161054912e-01
    12    9.103580002699e-02
    13    8.679910805048e-01
Sym=X
Ene= 0.192452
Spin=Alpha
Occup=0
     1    7.037489408441e-03
     2   -2.815789505612e-03
     3    2.162786108426e-01
     4    9.265734067688e-03
     5   -2.920917935881e-01
     6   -8.149860685445e-02
     7    4.375154367688e-01
     8    1.896310924980e-02
     9   -5.944476494623e-01
    10    8.441760430646e-02
    11    1.166409812777e+00
    12   -8.809455542815e-02
    13   -1.047993233456e+00
Sym=X
Ene= 0.924802
Spin=Alpha
Occup=0
     1    4.791021829859e-03
     2   -1.396257513370e-02
     3   -1.535262532668e-01
     4   -2.153880262906e-03
     5    1.350271559216e-01
     6    3.014117163116e-02
     7   -2.056630823805e-01
     8   -8.031333104420e-03
     9    2.650034652061e-01
    10   -8.405896452478e-01
    11    7.006674052045e-01
    12    1.048946206927e+00
    13   -8.567471416208e-01
Sym=X
Ene= 1.020232
Spin=Alpha
Occup=0
     1    6.078721114177e-02
     2   -9.886827679999e-02
     3   -2.458887373664e-01
     4    2.328381509308e-02
     5   -2.206669686617e-01
     6   -4.097951362259e-02
     7   -1.119787292835e-01
     8    1.606513456166e-02
     9   -1.898130681180e-01
    10    1.076155625087e+00
    11   -5.975729739466e-01
    12    8.367829820179e-01
    13   -4.621390673286e-01
Sym=X
Ene= 1.438695
Spin=Alpha
Occup=0
     1   -3.444485739510e-07
     2    4.648459063087e-06
     3    4.067388039427e-02
     4    1.022476337058e+00
     5    6.255383313307e-02
     6   -5.186941919528e-06
     7   -3.848611013569e-02
     8   -9.674941489925e-01
     9   -5.918901555791e-02
    10   -1.969143858280e-06
    11    2.355671286376e-06
    12   -1.060433690825e-06
    13    1.757593408627e-06
