[Molden Format]
[Atoms] (Angs)
  O      1    8     -0.00148670      0.00608709     -0.00060131
  H      2    1      0.00121555     -0.07134591      0.94825085
  H      3    1      0.95180110     -0.02526006     -0.22907249
[GTO]
1    0
S    3    1.000000
   3.22037000E+02    5.92394000E-02 
   4.84308000E+01    3.51500000E-01 
   1.04206000E+01    7.07658000E-01 
SP   2    1.000000
   7.40294000E+00   -4.04453000E-01   2.44586000E-01 
   1.57620000E+00    1.22156000E+00   8.53955000E-01 
SP   1    1.000000
   3.73684000E-01    1.00000000E+00   1.00000000E+00 

2    0
S    2    1.000000
   5.44717800E+00    1.56285000E-01 
   8.24547000E-01    9.04691000E-01 
S    1    1.000000
   1.83192000E-01    1.00000000E+00 

3    0
S    2    1.000000
   5.44717800E+00    1.56285000E-01 
   8.24547000E-01    9.04691000E-01 
S    1    1.000000
   1.83192000E-01    1.00000000E+00 

[MO]
Sym=X
Ene= -18.997888
Spin=Alpha
Occup=1
     1    9.822066569047e-01
     2    1.026498567595e-01
     3    2.789893940293e-03
     4   -3.317193891811e-04
     5    2.277236909195e-03
     6   -4.226004366246e-02
     7   -5.625803808944e-03
     8    6.813104916625e-04
     9   -4.744495938134e-03
    10    2.769383258255e-03
    11    7.807348305056e-03
    12    2.818076520828e-03
    13    7.086631170045e-03
Sym=X
Ene= -0.989586
Spin=Alpha
Occup=1
     1   -2.250182948527e-01
     2    2.155943069875e-01
     3    9.027067180242e-02
     4   -1.114665557787e-02
     5    7.876231808583e-02
     6    6.758566371311e-01
     7    8.819196476109e-02
     8   -1.056181473862e-02
     9    7.292583135992e-02
    10    1.320392072086e-01
    11    2.636535775693e-02
    12    1.203658289894e-01
    13    2.729097491928e-02
Sym=X
Ene= -0.501958
Spin=Alpha
Occup=1
     1    3.480482539744e-03
     2   -2.083587885685e-03
     3   -2.519276039966e-01
     4   -1.326747825612e-02
     5    3.249454629192e-01
     6   -1.768559261976e-02
     7   -2.113946528713e-01
     8   -1.071083036163e-02
     9    2.674881519514e-01
    10    2.387217744107e-01
    11    2.013054005186e-01
    12   -2.350215550087e-01
    13   -2.091827708130e-01
Sym=X
Ene= -0.328355
Spin=Alpha
Occup=1
     1    1.066093774404e-01
     2   -9.069617245079e-02
     3    3.441674611082e-01
     4   -3.994163903712e-02
     5    2.688652447590e-01
     6   -4.832639558754e-01
     7    3.724668482717e-01
     8   -4.307241559971e-02
     9    2.891044038933e-01
    10    1.320299537032e-01
    11    1.212164625045e-01
    12    1.331522347464e-01
    13    1.307875267846e-01
Sym=X
Ene= -0.258498
Spin=Alpha
Occup=1
     1    8.089983187140e-07
     2   -1.569871589827e-08
     3    2.762387684472e-02
     4    5.270889415370e-01
     5    4.293611205199e-02
     6   -5.421413919418e-06
     7    3.256830504671e-02
     8    6.214106802488e-01
     9    5.062043318134e-02
    10    4.220181595011e-07
    11    4.034142777434e-06
    12    1.867007281992e-07
    13    1.144357366986e-06
Sym=X
Ene= 0.097252
Spin=Alpha
Occup=0
     1    1.097795884189e-01
     2   -5.673430075357e-02
     3   -2.186963738529e-01
     4    2.276050061908e-02
     5   -1.387277508249e-01
     6   -9.876732110367e-01
     7   -3.923598182847e-01
     8    4.107837475414e-02
     9   -2.518796832501e-01
    10    7.511198054834e-02
    11    7.737456903580e-01
    12    9.347394408309e-02
    13    8.647252497276e-01
Sym=X
Ene= 0.189388
Spin=Alpha
Occup=0
     1    7.478277990595e-03
     2   -3.017932358542e-03
     3    2.171867759418e-01
     4    1.251396144280e-02
     5   -2.933629129324e-01
     6   -8.574888002702e-02
     7    4.357634833425e-01
     8    2.542335566510e-02
     9   -5.924615241853e-01
    10    8.773887016318e-02
    11    1.157330562412e+00
    12   -9.111600662127e-02
    13   -1.032201380763e+00
Sym=X
Ene= 0.920212
Spin=Alpha
Occup=0
     1    4.777675974244e-03
     2   -1.451301511227e-02
     3   -1.545547945345e-01
     4   -2.769220116738e-03
     5    1.334249585650e-01
     6    3.267645220887e-02
     7   -1.920613919697e-01
     8   -1.019590240344e-02
     9    2.487333724496e-01
    10   -8.330410657371e-01
    11    7.090063144272e-01
    12    1.048569302204e+00
    13   -8.724192463444e-01
Sym=X
Ene= 1.013720
Spin=Alpha
Occup=0
     1    5.935712703324e-02
     2   -9.938769931239e-02
     3   -2.451702581013e-01
     4    3.094441026655e-02
     5   -2.221167132257e-01
     6   -2.206159807590e-02
     7   -1.017809913323e-01
     8    2.014267998502e-02
     9   -1.818245748028e-01
    10    1.074542874826e+00
    11   -6.094325563414e-01
    12    8.271580824030e-01
    13   -4.644583822010e-01
Sym=X
Ene= 1.438473
Spin=Alpha
Occup=0
     1   -1.262518393645e-07
     2    3.887875881102e-06
     3    5.347267763125e-02
     4    1.020269946702e+00
     5    8.311210916884e-02
     6   -6.038222588689e-06
     7   -5.061416157522e-02
     8   -9.657236718034e-01
     9   -7.866825769196e-02
    10   -8.219857007729e-07
    11    3.170093862446e-06
    12    3.255956785279e-07
    13    2.167885373772e-06
